# vtk DataFile Version 2.0
sampleSurface
ASCII
DATASET POLYDATA
POINTS 152 float
0.640143 0.806957 -0.11 0.640143 0.806957 0.11 0.641428 0.808489 -0.11 0.641428 0.808489
0.11 0.676125 0.781762 -0.11 0.676125 0.781762 0.11 0.677125 0.783494 -0.11
0.677125 0.783494 0.11 0.609082 0.838018 -0.11 0.609082 0.838018 0.11 0.610614
0.839303 -0.11 0.610614 0.839303 0.11 0.715936 0.763197 -0.11 0.715936 0.763197
0.11 0.71662 0.765077 -0.11 0.71662 0.765077 0.11 0.583887 0.874 -0.11
0.583887 0.874 0.11 0.585619 0.875 -0.11 0.585619 0.875 0.11 0.758366
0.751828 -0.11 0.758366 0.751828 0.11 0.758713 0.753798 -0.11 0.758713 0.753798
0.11 0.565322 0.913811 -0.11 0.565322 0.913811 0.11 0.567202 0.914495 -0.11
0.567202 0.914495 0.11 0.802125 0.748 -0.11 0.802125 0.748 0.11 0.802125
0.75 -0.11 0.802125 0.75 0.11 0.553953 0.956241 -0.11 0.553953 0.956241
0.11 0.555923 0.956588 -0.11 0.555923 0.956588 0.11 0.845884 0.751828 -0.11
0.845884 0.751828 0.11 0.845537 0.753798 -0.11 0.845537 0.753798 0.11 0.550125
1 -0.11 0.550125 1 0.11 0.552125 1 -0.11 0.552125 1
0.11 0.888314 0.763197 -0.11 0.888314 0.763197 0.11 0.88763 0.765077 -0.11
0.88763 0.765077 0.11 0.928125 0.781762 -0.11 0.928125 0.781762 0.11 0.927125
0.783494 -0.11 0.927125 0.783494 0.11 0.962822 0.808489 -0.11 0.962822 0.808489
0.11 0.964107 0.806957 -0.11 0.964107 0.806957 0.11 0.993636 0.839303 -0.11
0.993636 0.839303 0.11 0.995168 0.838018 -0.11 0.995168 0.838018 0.11 1.01863
0.875 -0.11 1.01863 0.875 0.11 1.02036 0.874 -0.11 1.02036 0.874
0.11 0.948425 1 0.11 0.948425 1 -0.11 0.950425 1 -0.11
0.950425 1 0.11 1.03705 0.914495 -0.11 1.03705 0.914495 0.11 1.03893
0.913811 -0.11 1.03893 0.913811 0.11 0.952253 1.04376 -0.11 0.952253 1.04376
0.11 0.954223 1.04341 -0.11 0.954223 1.04341 0.11 1.04833 0.956588 -0.11
1.04833 0.956588 0.11 1.0503 0.956241 -0.11 1.0503 0.956241 0.11 1.05212
1 -0.11 1.05212 1 0.11 0.963622 1.08619 -0.11 0.963622 1.08619
0.11 0.965502 1.08551 -0.11 0.965502 1.08551 0.11 1.05412 1 -0.11
1.05412 1 0.11 0.982187 1.126 -0.11 0.982187 1.126 0.11 0.983919
1.125 -0.11 0.983919 1.125 0.11 1.00738 1.16198 -0.11 1.00738 1.16198
0.11 1.00891 1.1607 -0.11 1.00891 1.1607 0.11 1.03973 1.19151 -0.11
1.03973 1.19151 0.11 1.03844 1.19304 -0.11 1.03844 1.19304 0.11 1.07543
1.21651 -0.11 1.07543 1.21651 0.11 1.07442 1.21824 -0.11 1.07442 1.21824
0.11 1.11492 1.23492 -0.11 1.11492 1.23492 0.11 1.11424 1.2368 -0.11
1.11424 1.2368 0.11 1.15701 1.2462 -0.11 1.15701 1.2462 0.11 1.15667
1.24817 -0.11 1.15667 1.24817 0.11 1.20043 1.25 -0.11 1.20043 1.25
0.11 1.20043 1.252 -0.11 1.20043 1.252 0.11 1.24384 1.2462 -0.11
1.24384 1.2462 0.11 1.45043 1 -0.11 1.45043 1 0.11 1.24418
1.24817 -0.11 1.24418 1.24817 0.11 1.45243 1 -0.11 1.45243 1
0.11 1.28593 1.23492 -0.11 1.28593 1.23492 0.11 1.44663 1.04341 -0.11
1.44663 1.04341 0.11 1.28661 1.2368 -0.11 1.28661 1.2368 0.11 1.4486
1.04376 -0.11 1.4486 1.04376 0.11 1.32543 1.21651 -0.11 1.32543 1.21651
0.11 1.43535 1.08551 -0.11 1.43535 1.08551 0.11 1.32642 1.21824 -0.11
1.32642 1.21824 0.11 1.43723 1.08619 -0.11 1.43723 1.08619 0.11 1.36112
1.19151 -0.11 1.36112 1.19151 0.11 1.41693 1.125 -0.11 1.41693 1.125
0.11 1.36241 1.19304 -0.11 1.36241 1.19304 0.11 1.41866 1.126 -0.11
1.41866 1.126 0.11 1.39194 1.1607 -0.11 1.39194 1.1607 0.11 1.39347
1.16198 -0.11 1.39347 1.16198 0.11 
POLYGONS 296 1184
3 122 130 123 3 123 130 131 3 131 130
138 3 131 138 139 3 139 138 146 3
139 146 147 3 147 146 150 3 147 150
151 3 151 150 144 3 151 144 145 3
145 144 136 3 145 136 137 3 137 136
128 3 137 128 129 3 129 128 120 3
129 120 121 3 121 120 114 3 121 114
115 3 115 114 110 3 115 110 111 3
111 110 106 3 111 106 107 3 107 106
102 3 107 102 103 3 103 102 98 3
103 98 99 3 99 98 92 3 99 92
93 3 93 92 88 3 93 88 89 3
89 88 82 3 89 82 83 3 83 82
72 3 83 72 73 3 73 72 64 3
64 72 65 3 118 122 119 3 119 122
123 3 66 74 67 3 67 74 75 3
75 74 84 3 75 84 85 3 85 84
90 3 85 90 91 3 91 90 94 3
91 94 95 3 95 94 96 3 95 96
97 3 97 96 100 3 97 100 101 3
101 100 104 3 101 104 105 3 105 104
108 3 105 108 109 3 109 108 112 3
109 112 113 3 113 112 116 3 113 116
117 3 117 116 124 3 117 124 125 3
125 124 132 3 125 132 133 3 133 132
140 3 133 140 141 3 141 140 148 3
141 148 149 3 149 148 142 3 149 142
143 3 143 142 134 3 143 134 135 3
135 134 126 3 135 126 127 3 127 126
119 3 119 126 118 3 65 66 64 3
64 66 67 3 67 75 64 3 64 75
73 3 73 75 85 3 73 85 83 3
83 85 91 3 83 91 89 3 89 91
95 3 89 95 93 3 93 95 97 3
93 97 99 3 99 97 101 3 99 101
103 3 103 101 105 3 103 105 107 3
107 105 109 3 107 109 111 3 111 109
113 3 111 113 115 3 115 113 121 3
121 113 117 3 121 117 129 3 129 117
125 3 129 125 137 3 137 125 133 3
137 133 145 3 145 133 141 3 145 141
151 3 151 141 149 3 151 149 147 3
147 149 143 3 147 143 139 3 139 143
135 3 139 135 131 3 131 135 127 3
131 127 123 3 123 127 119 3 66 65
74 3 74 65 72 3 74 72 84 3
84 72 82 3 84 82 90 3 90 82
88 3 90 88 94 3 94 88 92 3
94 92 96 3 96 92 98 3 96 98
100 3 100 98 102 3 100 102 104 3
104 102 106 3 104 106 108 3 108 106
110 3 108 110 112 3 112 110 114 3
112 114 120 3 112 120 116 3 116 120
128 3 116 128 124 3 124 128 136 3
124 136 132 3 132 136 144 3 132 144
140 3 140 144 150 3 140 150 148 3
148 150 146 3 148 146 142 3 142 146
138 3 142 138 134 3 134 138 130 3
134 130 126 3 126 130 122 3 126 122
118 3 42 40 43 3 43 40 41 3
80 76 81 3 81 76 77 3 77 76
68 3 77 68 69 3 69 68 60 3
69 60 61 3 61 60 56 3 61 56
57 3 57 56 52 3 57 52 53 3
53 52 50 3 53 50 51 3 51 50
46 3 51 46 47 3 47 46 38 3
47 38 39 3 39 38 30 3 39 30
31 3 31 30 22 3 31 22 23 3
23 22 14 3 23 14 15 3 15 14
6 3 15 6 7 3 7 6 2 3
7 2 3 3 3 2 10 3 3 10
11 3 11 10 18 3 11 18 19 3
19 18 26 3 19 26 27 3 27 26
34 3 27 34 35 3 35 34 43 3
43 34 42 3 86 80 87 3 87 80
81 3 40 32 41 3 41 32 33 3
33 32 24 3 33 24 25 3 25 24
16 3 25 16 17 3 17 16 8 3
17 8 9 3 9 8 0 3 9 0
1 3 1 0 4 3 1 4 5 3
5 4 12 3 5 12 13 3 13 12
20 3 13 20 21 3 21 20 28 3
21 28 29 3 29 28 36 3 29 36
37 3 37 36 44 3 37 44 45 3
45 44 48 3 45 48 49 3 49 48
54 3 49 54 55 3 55 54 58 3
55 58 59 3 59 58 62 3 59 62
63 3 63 62 70 3 63 70 71 3
71 70 78 3 71 78 79 3 79 78
87 3 87 78 86 3 43 41 35 3
35 41 33 3 35 33 27 3 27 33
25 3 27 25 19 3 19 25 17 3
19 17 11 3 11 17 9 3 11 9
3 3 3 9 1 3 3 1 7 3
7 1 5 3 7 5 15 3 15 5
13 3 15 13 23 3 23 13 21 3
23 21 31 3 31 21 29 3 31 29
37 3 31 37 39 3 39 37 45 3
39 45 47 3 47 45 49 3 47 49
51 3 51 49 55 3 51 55 53 3
53 55 59 3 53 59 57 3 57 59
63 3 57 63 61 3 61 63 71 3
61 71 69 3 69 71 79 3 69 79
77 3 77 79 87 3 77 87 81 3
80 86 76 3 76 86 78 3 76 78
68 3 68 78 70 3 68 70 60 3
60 70 62 3 60 62 56 3 56 62
58 3 56 58 52 3 52 58 54 3
52 54 50 3 50 54 48 3 50 48
46 3 46 48 44 3 46 44 38 3
38 44 36 3 38 36 30 3 30 36
28 3 30 28 20 3 30 20 22 3
22 20 12 3 22 12 14 3 14 12
4 3 14 4 6 3 6 4 0 3
6 0 2 3 2 0 8 3 2 8
10 3 10 8 16 3 10 16 18 3
18 16 24 3 18 24 26 3 26 24
32 3 26 32 34 3 34 32 40 3
34 40 42 
CELL_DATA 296
FIELD attributes 1
zone 1 296 float
0 0 0 0 0 0 0 0 0 0 0
0 0 0 0 0 0 0 0 0 0
0 0 0 0 0 0 0 0 0 0
0 0 0 0 0 0 0 0 0 0
0 0 0 0 0 0 0 0 0 0
0 0 0 0 0 0 0 0 0 0
0 0 0 0 0 0 0 0 0 0
0 0 0 0 0 0 0 0 0 0
0 0 0 0 0 0 0 0 0 0
0 0 0 0 0 0 0 0 0 0
0 0 0 0 0 0 0 0 0 0
0 0 0 0 0 0 0 0 0 0
0 0 0 0 0 0 0 0 0 0
0 0 0 0 0 0 0 0 0 0
0 0 0 0 0 0 0 1 1 1
1 1 1 1 1 1 1 1 1 1
1 1 1 1 1 1 1 1 1 1
1 1 1 1 1 1 1 1 1 1
1 1 1 1 1 1 1 1 1 1
1 1 1 1 1 1 1 1 1 1
1 1 1 1 1 1 1 1 1 1
1 1 1 1 1 1 1 1 1 1
1 1 1 1 1 1 1 1 1 1
1 1 1 1 1 1 1 1 1 1
1 1 1 1 1 1 1 1 1 1
1 1 1 1 1 1 1 1 1 1
1 1 1 1 1 1 1 1 1 1
1 1 1 1 1 1 1 1 1 1
1 1 1 1 1 1 1 1 1 1
1 1 1 1 1 
