# vtk DataFile Version 2.0
sampleSurface
ASCII
DATASET POLYDATA
POINTS 152 float
1 0.547575 -0.11 1 0.547575 0.11 1 0.549575 -0.11 1 0.549575
0.11 1.04376 0.551403 -0.11 1.04376 0.551403 0.11 1.04341 0.553373 -0.11
1.04341 0.553373 0.11 1.08619 0.562773 -0.11 1.08619 0.562773 0.11 1.08551
0.564652 -0.11 1.08551 0.564652 0.11 1.125 0.583069 -0.11 1.125 0.583069
0.11 1.126 0.581337 -0.11 1.126 0.581337 0.11 0.838018 1.00483 -0.11
0.838018 1.00483 0.11 1.1607 0.608064 -0.11 1.1607 0.608064 0.11 0.839303
1.00636 -0.11 0.839303 1.00636 0.11 1.16198 0.606532 -0.11 1.16198 0.606532
0.11 0.874 0.979637 -0.11 0.874 0.979637 0.11 0.806957 1.03589 -0.11
0.806957 1.03589 0.11 0.875 0.981369 -0.11 0.875 0.981369 0.11 0.808489
1.03718 -0.11 0.808489 1.03718 0.11 0.913811 0.961072 -0.11 0.913811 0.961072
0.11 0.781762 1.07187 -0.11 0.781762 1.07187 0.11 0.914495 0.962952 -0.11
0.914495 0.962952 0.11 0.783494 1.07288 -0.11 0.783494 1.07288 0.11 0.956241
0.949703 -0.11 0.956241 0.949703 0.11 0.763197 1.11169 -0.11 0.763197 1.11169
0.11 0.956588 0.951673 -0.11 0.956588 0.951673 0.11 0.765077 1.11237 -0.11
0.765077 1.11237 0.11 1.19151 0.638878 -0.11 1.19151 0.638878 0.11 1.19304
0.637593 -0.11 1.19304 0.637593 0.11 1 0.945875 -0.11 1 0.945875
0.11 0.751828 1.15412 -0.11 0.751828 1.15412 0.11 1 0.947875 -0.11
1 0.947875 0.11 0.753798 1.15446 -0.11 0.753798 1.15446 0.11 1.21651
0.674575 -0.11 1.21651 0.674575 0.11 1.21824 0.673575 -0.11 1.21824 0.673575
0.11 0.748 1.19788 -0.11 0.748 1.19788 0.11 0.75 1.19788 -0.11
0.75 1.19788 0.11 1.23492 0.71407 -0.11 1.23492 0.71407 0.11 1.2368
0.713386 -0.11 1.2368 0.713386 0.11 1 1.04957 -0.11 1 1.04957
0.11 1 1.05157 0.11 1 1.05157 -0.11 0.751828 1.24163 -0.11
0.751828 1.24163 0.11 0.753798 1.24129 -0.11 0.753798 1.24129 0.11 1.2462
0.756163 -0.11 1.2462 0.756163 0.11 1.24817 0.755816 -0.11 1.24817 0.755816
0.11 1.04341 1.04578 -0.11 1.04341 1.04578 0.11 1.04376 1.04775 -0.11
1.04376 1.04775 0.11 1.25 0.799575 -0.11 1.25 0.799575 0.11 1.252
0.799575 -0.11 1.252 0.799575 0.11 0.763197 1.28406 -0.11 0.763197 1.28406
0.11 0.765077 1.28338 -0.11 0.765077 1.28338 0.11 1.08551 1.0345 -0.11
1.08551 1.0345 0.11 1.08619 1.03638 -0.11 1.08619 1.03638 0.11 1.2462
0.842987 -0.11 1.2462 0.842987 0.11 1.24817 0.843334 -0.11 1.24817 0.843334
0.11 1.125 1.01608 -0.11 1.125 1.01608 0.11 1.126 1.01781 -0.11
1.126 1.01781 0.11 1.23492 0.88508 -0.11 1.23492 0.88508 0.11 1.2368
0.885764 -0.11 1.2368 0.885764 0.11 1.1607 0.991086 -0.11 1.1607 0.991086
0.11 1.21651 0.924575 -0.11 1.21651 0.924575 0.11 1.16198 0.992618 -0.11
1.16198 0.992618 0.11 1.21824 0.925575 -0.11 1.21824 0.925575 0.11 1.19151
0.960272 -0.11 1.19151 0.960272 0.11 1.19304 0.961558 -0.11 1.19304 0.961558
0.11 0.781762 1.32387 -0.11 0.781762 1.32387 0.11 0.783494 1.32288 -0.11
0.783494 1.32288 0.11 0.808489 1.35857 -0.11 0.808489 1.35857 0.11 0.806957
1.35986 -0.11 0.806957 1.35986 0.11 0.839303 1.38939 -0.11 0.839303 1.38939
0.11 0.838018 1.39092 -0.11 0.838018 1.39092 0.11 0.875 1.41438 -0.11
0.875 1.41438 0.11 0.874 1.41611 -0.11 0.874 1.41611 0.11 0.914495
1.4328 -0.11 0.914495 1.4328 0.11 0.913811 1.43468 -0.11 0.913811 1.43468
0.11 0.956588 1.44408 -0.11 0.956588 1.44408 0.11 0.956241 1.44605 -0.11
0.956241 1.44605 0.11 1 1.44788 -0.11 1 1.44788 0.11 1
1.44987 -0.11 1 1.44987 0.11 
POLYGONS 296 1184
3 0 4 1 3 1 4 5 3 5 4
8 3 5 8 9 3 9 8 14 3
9 14 15 3 15 14 22 3 15 22
23 3 23 22 50 3 23 50 51 3
51 50 62 3 51 62 63 3 63 62
70 3 63 70 71 3 71 70 82 3
71 82 83 3 83 82 90 3 83 90
91 3 91 90 102 3 91 102 103 3
103 102 110 3 103 110 111 3 111 110
118 3 111 118 119 3 119 118 122 3
119 122 123 3 123 122 116 3 123 116
117 3 117 116 106 3 117 106 107 3
107 106 98 3 107 98 99 3 99 98
86 3 99 86 87 3 87 86 74 3
74 86 75 3 2 0 3 3 3 0
1 3 72 84 73 3 73 84 85 3
85 84 96 3 85 96 97 3 97 96
104 3 97 104 105 3 105 104 112 3
105 112 113 3 113 112 120 3 113 120
121 3 121 120 114 3 121 114 115 3
115 114 108 3 115 108 109 3 109 108
100 3 109 100 101 3 101 100 88 3
101 88 89 3 89 88 80 3 89 80
81 3 81 80 68 3 81 68 69 3
69 68 60 3 69 60 61 3 61 60
48 3 61 48 49 3 49 48 18 3
49 18 19 3 19 18 12 3 19 12
13 3 13 12 10 3 13 10 11 3
11 10 6 3 11 6 7 3 7 6
3 3 3 6 2 3 75 72 74 3
74 72 73 3 73 85 74 3 74 85
87 3 87 85 97 3 87 97 99 3
99 97 105 3 99 105 107 3 107 105
113 3 107 113 117 3 117 113 121 3
117 121 123 3 123 121 115 3 123 115
119 3 119 115 109 3 119 109 111 3
111 109 101 3 111 101 103 3 103 101
89 3 103 89 91 3 91 89 83 3
83 89 81 3 83 81 71 3 71 81
69 3 71 69 63 3 63 69 61 3
63 61 51 3 51 61 49 3 51 49
23 3 23 49 19 3 23 19 15 3
15 19 13 3 15 13 9 3 9 13
11 3 9 11 5 3 5 11 7 3
5 7 1 3 1 7 3 3 72 75
84 3 84 75 86 3 84 86 96 3
96 86 98 3 96 98 104 3 104 98
106 3 104 106 112 3 112 106 116 3
112 116 120 3 120 116 122 3 120 122
114 3 114 122 118 3 114 118 108 3
108 118 110 3 108 110 100 3 100 110
102 3 100 102 88 3 88 102 90 3
88 90 82 3 88 82 80 3 80 82
70 3 80 70 68 3 68 70 62 3
68 62 60 3 60 62 50 3 60 50
48 3 48 50 22 3 48 22 18 3
18 22 14 3 18 14 12 3 12 14
8 3 12 8 10 3 10 8 4 3
10 4 6 3 6 4 0 3 6 0
2 3 148 150 149 3 149 150 151 3
56 44 57 3 57 44 45 3 45 44
36 3 45 36 37 3 37 36 28 3
37 28 29 3 29 28 20 3 29 20
21 3 21 20 30 3 21 30 31 3
31 30 38 3 31 38 39 3 39 38
46 3 39 46 47 3 47 46 58 3
47 58 59 3 59 58 66 3 59 66
67 3 67 66 78 3 67 78 79 3
79 78 94 3 79 94 95 3 95 94
126 3 95 126 127 3 127 126 128 3
127 128 129 3 129 128 132 3 129 132
133 3 133 132 136 3 133 136 137 3
137 136 140 3 137 140 141 3 141 140
144 3 141 144 145 3 145 144 149 3
149 144 148 3 52 56 53 3 53 56
57 3 150 146 151 3 151 146 147 3
147 146 142 3 147 142 143 3 143 142
138 3 143 138 139 3 139 138 134 3
139 134 135 3 135 134 130 3 135 130
131 3 131 130 124 3 131 124 125 3
125 124 92 3 125 92 93 3 93 92
76 3 93 76 77 3 77 76 64 3
77 64 65 3 65 64 54 3 65 54
55 3 55 54 42 3 55 42 43 3
43 42 34 3 43 34 35 3 35 34
26 3 35 26 27 3 27 26 16 3
27 16 17 3 17 16 24 3 17 24
25 3 25 24 32 3 25 32 33 3
33 32 40 3 33 40 41 3 41 40
53 3 53 40 52 3 149 151 145 3
145 151 147 3 145 147 141 3 141 147
143 3 141 143 137 3 137 143 139 3
137 139 133 3 133 139 135 3 133 135
129 3 129 135 131 3 129 131 127 3
127 131 125 3 127 125 95 3 95 125
93 3 95 93 79 3 79 93 77 3
79 77 67 3 67 77 65 3 67 65
55 3 67 55 59 3 59 55 43 3
59 43 47 3 47 43 35 3 47 35
39 3 39 35 27 3 39 27 31 3
31 27 17 3 31 17 21 3 21 17
25 3 21 25 29 3 29 25 33 3
29 33 37 3 37 33 41 3 37 41
45 3 45 41 53 3 45 53 57 3
56 52 44 3 44 52 40 3 44 40
36 3 36 40 32 3 36 32 28 3
28 32 24 3 28 24 20 3 20 24
16 3 20 16 30 3 30 16 26 3
30 26 38 3 38 26 34 3 38 34
46 3 46 34 42 3 46 42 58 3
58 42 54 3 58 54 66 3 66 54
64 3 66 64 76 3 66 76 78 3
78 76 92 3 78 92 94 3 94 92
124 3 94 124 126 3 126 124 130 3
126 130 128 3 128 130 134 3 128 134
132 3 132 134 138 3 132 138 136 3
136 138 142 3 136 142 140 3 140 142
146 3 140 146 144 3 144 146 150 3
144 150 148 
CELL_DATA 296
FIELD attributes 1
zone 1 296 float
0 0 0 0 0 0 0 0 0 0 0
0 0 0 0 0 0 0 0 0 0
0 0 0 0 0 0 0 0 0 0
0 0 0 0 0 0 0 0 0 0
0 0 0 0 0 0 0 0 0 0
0 0 0 0 0 0 0 0 0 0
0 0 0 0 0 0 0 0 0 0
0 0 0 0 0 0 0 0 0 0
0 0 0 0 0 0 0 0 0 0
0 0 0 0 0 0 0 0 0 0
0 0 0 0 0 0 0 0 0 0
0 0 0 0 0 0 0 0 0 0
0 0 0 0 0 0 0 0 0 0
0 0 0 0 0 0 0 0 0 0
0 0 0 0 0 0 0 1 1 1
1 1 1 1 1 1 1 1 1 1
1 1 1 1 1 1 1 1 1 1
1 1 1 1 1 1 1 1 1 1
1 1 1 1 1 1 1 1 1 1
1 1 1 1 1 1 1 1 1 1
1 1 1 1 1 1 1 1 1 1
1 1 1 1 1 1 1 1 1 1
1 1 1 1 1 1 1 1 1 1
1 1 1 1 1 1 1 1 1 1
1 1 1 1 1 1 1 1 1 1
1 1 1 1 1 1 1 1 1 1
1 1 1 1 1 1 1 1 1 1
1 1 1 1 1 1 1 1 1 1
1 1 1 1 1 1 1 1 1 1
1 1 1 1 1 
