# vtk DataFile Version 2.0
sampleSurface
ASCII
DATASET POLYDATA
POINTS 152 float
0.68189 0.68189 -0.11 0.68189 0.68189 0.11 0.683305 0.683305 -0.11 0.683305 0.683305
0.11 0.71554 0.653655 -0.11 0.71554 0.653655 0.11 0.716687 0.655293 -0.11
0.716687 0.655293 0.11 0.753581 0.631692 -0.11 0.753581 0.631692 0.11 0.754427
0.633504 -0.11 0.754427 0.633504 0.11 0.794859 0.616668 -0.11 0.794859 0.616668
0.11 0.795376 0.6186 -0.11 0.795376 0.6186 0.11 0.838118 0.60904 -0.11
0.838118 0.60904 0.11 0.838292 0.611033 -0.11 0.838292 0.611033 0.11 0.882044
0.60904 -0.11 0.882044 0.60904 0.11 0.88187 0.611033 -0.11 0.88187 0.611033
0.11 0.925304 0.616668 -0.11 0.925304 0.616668 0.11 0.924786 0.6186 -0.11
0.924786 0.6186 0.11 0.966581 0.631692 -0.11 0.966581 0.631692 0.11 0.965736
0.633504 -0.11 0.965736 0.633504 0.11 1.00348 0.655293 -0.11 1.00348 0.655293
0.11 1.00462 0.653655 -0.11 1.00462 0.653655 0.11 1.03686 0.683305 -0.11
1.03686 0.683305 0.11 1.03827 0.68189 -0.11 1.03827 0.68189 0.11 1.06487
0.716687 -0.11 1.06487 0.716687 0.11 1.06651 0.71554 -0.11 1.06651 0.71554
0.11 1.08666 0.754427 -0.11 1.08666 0.754427 0.11 1.08847 0.753581 -0.11
1.08847 0.753581 0.11 1.10156 0.795376 -0.11 1.10156 0.795376 0.11 1.10349
0.794859 -0.11 1.10349 0.794859 0.11 0.963531 0.963531 0.11 0.963531 0.963531
-0.11 0.964945 0.964945 -0.11 0.964945 0.964945 0.11 0.935296 0.997181 -0.11
0.935296 0.997181 0.11 0.936934 0.998328 -0.11 0.936934 0.998328 0.11 0.913332
1.03522 -0.11 0.913332 1.03522 0.11 0.915145 1.03607 -0.11 0.915145 1.03607
0.11 1.10913 0.838292 -0.11 1.10913 0.838292 0.11 1.11112 0.838118 -0.11
1.11112 0.838118 0.11 0.898309 1.0765 -0.11 0.898309 1.0765 0.11 0.90024
1.07702 -0.11 0.90024 1.07702 0.11 1.10913 0.88187 -0.11 1.10913 0.88187
0.11 1.11112 0.882044 -0.11 1.11112 0.882044 0.11 0.890681 1.11976 -0.11
0.890681 1.11976 0.11 0.892673 1.11993 -0.11 0.892673 1.11993 0.11 1.10156
0.924786 -0.11 1.10156 0.924786 0.11 1.10349 0.925304 -0.11 1.10349 0.925304
0.11 1.08666 0.965736 -0.11 1.08666 0.965736 0.11 1.08847 0.966581 -0.11
1.08847 0.966581 0.11 1.06487 1.00348 -0.11 1.06487 1.00348 0.11 1.06651
1.00462 -0.11 1.06651 1.00462 0.11 0.890681 1.16369 -0.11 0.890681 1.16369
0.11 1.03686 1.03686 -0.11 1.03686 1.03686 0.11 0.892673 1.16351 -0.11
0.892673 1.16351 0.11 1.03827 1.03827 -0.11 1.03827 1.03827 0.11 0.898309
1.20694 -0.11 0.898309 1.20694 0.11 0.90024 1.20643 -0.11 0.90024 1.20643
0.11 0.913332 1.24822 -0.11 0.913332 1.24822 0.11 0.915145 1.24738 -0.11
0.915145 1.24738 0.11 0.935296 1.28626 -0.11 0.935296 1.28626 0.11 0.936934
1.28512 -0.11 0.936934 1.28512 0.11 0.964945 1.3185 -0.11 0.964945 1.3185
0.11 0.963531 1.31991 -0.11 0.963531 1.31991 0.11 0.998328 1.34651 -0.11
0.998328 1.34651 0.11 0.997181 1.34815 -0.11 0.997181 1.34815 0.11 1.03607
1.3683 -0.11 1.03607 1.3683 0.11 1.03522 1.37011 -0.11 1.03522 1.37011
0.11 1.07702 1.3832 -0.11 1.07702 1.3832 0.11 1.0765 1.38514 -0.11
1.0765 1.38514 0.11 1.11993 1.39077 -0.11 1.11993 1.39077 0.11 1.11976
1.39276 -0.11 1.11976 1.39276 0.11 1.16351 1.39077 -0.11 1.16351 1.39077
0.11 1.16369 1.39276 -0.11 1.16369 1.39276 0.11 1.20643 1.3832 -0.11
1.20643 1.3832 0.11 1.20694 1.38514 -0.11 1.20694 1.38514 0.11 1.24738
1.3683 -0.11 1.24738 1.3683 0.11 1.24822 1.37011 -0.11 1.24822 1.37011
0.11 1.28512 1.34651 -0.11 1.28512 1.34651 0.11 1.28626 1.34815 -0.11
1.28626 1.34815 0.11 1.3185 1.3185 -0.11 1.3185 1.3185 0.11 1.31991
1.31991 -0.11 1.31991 1.31991 0.11 
POLYGONS 296 1184
3 150 146 151 3 151 146 147 3 147 146
142 3 147 142 143 3 143 142 138 3
143 138 139 3 139 138 134 3 139 134
135 3 135 134 130 3 135 130 131 3
131 130 126 3 131 126 127 3 127 126
122 3 127 122 123 3 123 122 118 3
123 118 119 3 119 118 114 3 119 114
115 3 115 114 108 3 115 108 109 3
109 108 104 3 109 104 105 3 105 104
100 3 105 100 101 3 101 100 92 3
101 92 93 3 93 92 76 3 93 76
77 3 77 76 68 3 77 68 69 3
69 68 60 3 69 60 61 3 61 60
56 3 61 56 57 3 57 56 52 3
52 56 53 3 148 150 149 3 149 150
151 3 54 58 55 3 55 58 59 3
59 58 62 3 59 62 63 3 63 62
70 3 63 70 71 3 71 70 78 3
71 78 79 3 79 78 96 3 79 96
97 3 97 96 102 3 97 102 103 3
103 102 106 3 103 106 107 3 107 106
110 3 107 110 111 3 111 110 112 3
111 112 113 3 113 112 116 3 113 116
117 3 117 116 120 3 117 120 121 3
121 120 124 3 121 124 125 3 125 124
128 3 125 128 129 3 129 128 132 3
129 132 133 3 133 132 136 3 133 136
137 3 137 136 140 3 137 140 141 3
141 140 144 3 141 144 145 3 145 144
149 3 149 144 148 3 53 54 52 3
52 54 55 3 55 59 52 3 52 59
57 3 57 59 63 3 57 63 61 3
61 63 71 3 61 71 69 3 69 71
79 3 69 79 77 3 77 79 97 3
77 97 93 3 93 97 103 3 93 103
101 3 101 103 107 3 101 107 105 3
105 107 111 3 105 111 109 3 109 111
113 3 109 113 115 3 115 113 119 3
119 113 117 3 119 117 123 3 123 117
121 3 123 121 127 3 127 121 125 3
127 125 131 3 131 125 129 3 131 129
135 3 135 129 133 3 135 133 139 3
139 133 137 3 139 137 143 3 143 137
141 3 143 141 147 3 147 141 145 3
147 145 151 3 151 145 149 3 54 53
58 3 58 53 56 3 58 56 62 3
62 56 60 3 62 60 70 3 70 60
68 3 70 68 78 3 78 68 76 3
78 76 96 3 96 76 92 3 96 92
102 3 102 92 100 3 102 100 106 3
106 100 104 3 106 104 110 3 110 104
108 3 110 108 112 3 112 108 114 3
112 114 118 3 112 118 116 3 116 118
122 3 116 122 120 3 120 122 126 3
120 126 124 3 124 126 130 3 124 130
128 3 128 130 134 3 128 134 132 3
132 134 138 3 132 138 136 3 136 138
142 3 136 142 140 3 140 142 146 3
140 146 144 3 144 146 150 3 144 150
148 3 2 0 3 3 3 0 1 3
94 88 95 3 95 88 89 3 89 88
84 3 89 84 85 3 85 84 80 3
85 80 81 3 81 80 72 3 81 72
73 3 73 72 64 3 73 64 65 3
65 64 48 3 65 48 49 3 49 48
44 3 49 44 45 3 45 44 40 3
45 40 41 3 41 40 36 3 41 36
37 3 37 36 32 3 37 32 33 3
33 32 30 3 33 30 31 3 31 30
26 3 31 26 27 3 27 26 22 3
27 22 23 3 23 22 18 3 23 18
19 3 19 18 14 3 19 14 15 3
15 14 10 3 15 10 11 3 11 10
6 3 11 6 7 3 7 6 3 3
3 6 2 3 98 94 99 3 99 94
95 3 0 4 1 3 1 4 5 3
5 4 8 3 5 8 9 3 9 8
12 3 9 12 13 3 13 12 16 3
13 16 17 3 17 16 20 3 17 20
21 3 21 20 24 3 21 24 25 3
25 24 28 3 25 28 29 3 29 28
34 3 29 34 35 3 35 34 38 3
35 38 39 3 39 38 42 3 39 42
43 3 43 42 46 3 43 46 47 3
47 46 50 3 47 50 51 3 51 50
66 3 51 66 67 3 67 66 74 3
67 74 75 3 75 74 82 3 75 82
83 3 83 82 86 3 83 86 87 3
87 86 90 3 87 90 91 3 91 90
99 3 99 90 98 3 3 1 7 3
7 1 5 3 7 5 11 3 11 5
9 3 11 9 15 3 15 9 13 3
15 13 19 3 19 13 17 3 19 17
23 3 23 17 21 3 23 21 27 3
27 21 25 3 27 25 31 3 31 25
29 3 31 29 33 3 33 29 35 3
33 35 37 3 37 35 39 3 37 39
43 3 37 43 41 3 41 43 47 3
41 47 45 3 45 47 51 3 45 51
49 3 49 51 67 3 49 67 65 3
65 67 75 3 65 75 73 3 73 75
83 3 73 83 81 3 81 83 87 3
81 87 85 3 85 87 91 3 85 91
89 3 89 91 99 3 89 99 95 3
94 98 88 3 88 98 90 3 88 90
84 3 84 90 86 3 84 86 80 3
80 86 82 3 80 82 72 3 72 82
74 3 72 74 64 3 64 74 66 3
64 66 48 3 48 66 50 3 48 50
44 3 44 50 46 3 44 46 40 3
40 46 42 3 40 42 36 3 36 42
38 3 36 38 34 3 36 34 32 3
32 34 28 3 32 28 30 3 30 28
24 3 30 24 26 3 26 24 20 3
26 20 22 3 22 20 16 3 22 16
18 3 18 16 12 3 18 12 14 3
14 12 8 3 14 8 10 3 10 8
4 3 10 4 6 3 6 4 0 3
6 0 2 
CELL_DATA 296
FIELD attributes 1
zone 1 296 float
0 0 0 0 0 0 0 0 0 0 0
0 0 0 0 0 0 0 0 0 0
0 0 0 0 0 0 0 0 0 0
0 0 0 0 0 0 0 0 0 0
0 0 0 0 0 0 0 0 0 0
0 0 0 0 0 0 0 0 0 0
0 0 0 0 0 0 0 0 0 0
0 0 0 0 0 0 0 0 0 0
0 0 0 0 0 0 0 0 0 0
0 0 0 0 0 0 0 0 0 0
0 0 0 0 0 0 0 0 0 0
0 0 0 0 0 0 0 0 0 0
0 0 0 0 0 0 0 0 0 0
0 0 0 0 0 0 0 0 0 0
0 0 0 0 0 0 0 1 1 1
1 1 1 1 1 1 1 1 1 1
1 1 1 1 1 1 1 1 1 1
1 1 1 1 1 1 1 1 1 1
1 1 1 1 1 1 1 1 1 1
1 1 1 1 1 1 1 1 1 1
1 1 1 1 1 1 1 1 1 1
1 1 1 1 1 1 1 1 1 1
1 1 1 1 1 1 1 1 1 1
1 1 1 1 1 1 1 1 1 1
1 1 1 1 1 1 1 1 1 1
1 1 1 1 1 1 1 1 1 1
1 1 1 1 1 1 1 1 1 1
1 1 1 1 1 1 1 1 1 1
1 1 1 1 1 1 1 1 1 1
1 1 1 1 1 
