# vtk DataFile Version 2.0
sampleSurface
ASCII
DATASET POLYDATA
POINTS 152 float
0.640143 0.806957 1e-06 0.641428 0.808489 1e-06 0.676125 0.781762 1e-06 0.640143 0.806957
0.100001 0.677125 0.783494 1e-06 0.609082 0.838018 1e-06 0.641428 0.808489 0.100001
0.610614 0.839303 1e-06 0.676125 0.781762 0.100001 0.677125 0.783494 0.100001 0.609082
0.838018 0.100001 0.610614 0.839303 0.100001 0.715936 0.763197 1e-06 0.71662 0.765077
1e-06 0.583887 0.874 1e-06 0.715936 0.763197 0.100001 0.585619 0.875 1e-06
0.71662 0.765077 0.100001 0.583887 0.874 0.100001 0.585619 0.875 0.100001 0.758366
0.751828 1e-06 0.758713 0.753798 1e-06 0.758366 0.751828 0.100001 0.758713 0.753798
0.100001 0.565322 0.913811 1e-06 0.567202 0.914495 1e-06 0.565322 0.913811 0.100001
0.567202 0.914495 0.100001 0.802125 0.748 1e-06 0.802125 0.75 1e-06 0.802125
0.748 0.100001 0.802125 0.75 0.100001 0.553953 0.956241 1e-06 0.555923 0.956588
1e-06 0.553953 0.956241 0.100001 0.555923 0.956588 0.100001 0.845884 0.751828 1e-06
0.845537 0.753798 1e-06 0.845884 0.751828 0.100001 0.845537 0.753798 0.100001 0.550125
1 1e-06 0.552125 1 1e-06 0.550125 1 0.100001 0.552125 1
0.100001 0.888314 0.763197 1e-06 0.88763 0.765077 1e-06 0.888314 0.763197 0.100001
0.88763 0.765077 0.100001 0.928125 0.781762 1e-06 0.927125 0.783494 1e-06 0.928125
0.781762 0.100001 0.927125 0.783494 0.100001 0.962822 0.808489 1e-06 0.964107 0.806957
1e-06 0.962822 0.808489 0.100001 0.964107 0.806957 0.100001 0.993636 0.839303 1e-06
0.995168 0.838018 1e-06 0.993636 0.839303 0.100001 0.995168 0.838018 0.100001 1.01863
0.875 1e-06 1.02036 0.874 1e-06 1.01863 0.875 0.100001 1.02036 0.874
0.100001 0.948425 1 1e-06 0.950425 1 1e-06 0.948425 1 0.100001
1.03705 0.914495 1e-06 0.950425 1 0.100001 1.03893 0.913811 1e-06 1.03705
0.914495 0.100001 1.03893 0.913811 0.100001 0.952253 1.04376 1e-06 0.954223 1.04341
1e-06 0.952253 1.04376 0.100001 0.954223 1.04341 0.100001 1.04833 0.956588 1e-06
1.0503 0.956241 1e-06 1.04833 0.956588 0.100001 1.0503 0.956241 0.100001 1.05212
1 1e-06 0.963622 1.08619 1e-06 0.965502 1.08551 1e-06 1.05412 1
1e-06 1.05212 1 0.100001 0.963622 1.08619 0.100001 0.965502 1.08551 0.100001
1.05412 1 0.100001 0.982187 1.126 1e-06 0.983919 1.125 1e-06 0.982187
1.126 0.100001 0.983919 1.125 0.100001 1.00738 1.16198 1e-06 1.00891 1.1607
1e-06 1.00738 1.16198 0.100001 1.00891 1.1607 0.100001 1.03973 1.19151 1e-06
1.03844 1.19304 1e-06 1.03973 1.19151 0.100001 1.03844 1.19304 0.100001 1.07543
1.21651 1e-06 1.07442 1.21824 1e-06 1.07543 1.21651 0.100001 1.07442 1.21824
0.100001 1.11492 1.23492 1e-06 1.11424 1.2368 1e-06 1.11492 1.23492 0.100001
1.11424 1.2368 0.100001 1.15701 1.2462 1e-06 1.15667 1.24817 1e-06 1.15701
1.2462 0.100001 1.15667 1.24817 0.100001 1.20043 1.25 1e-06 1.20043 1.252
1e-06 1.20043 1.25 0.100001 1.20043 1.252 0.100001 1.24384 1.2462 1e-06
1.45043 1 1e-06 1.24418 1.24817 1e-06 1.45243 1 1e-06 1.24384
1.2462 0.100001 1.45043 1 0.100001 1.24418 1.24817 0.100001 1.45243 1
0.100001 1.28593 1.23492 1e-06 1.44663 1.04341 1e-06 1.28661 1.2368 1e-06
1.4486 1.04376 1e-06 1.28593 1.23492 0.100001 1.44663 1.04341 0.100001 1.28661
1.2368 0.100001 1.4486 1.04376 0.100001 1.32543 1.21651 1e-06 1.43535 1.08551
1e-06 1.32642 1.21824 1e-06 1.43723 1.08619 1e-06 1.32543 1.21651 0.100001
1.43535 1.08551 0.100001 1.32642 1.21824 0.100001 1.43723 1.08619 0.100001 1.36112
1.19151 1e-06 1.41693 1.125 1e-06 1.36241 1.19304 1e-06 1.41866 1.126
1e-06 1.36112 1.19151 0.100001 1.41693 1.125 0.100001 1.39194 1.1607 1e-06
1.36241 1.19304 0.100001 1.41866 1.126 0.100001 1.39347 1.16198 1e-06 1.39194
1.1607 0.100001 1.39347 1.16198 0.100001 
POLYGONS 296 1184
3 119 127 123 3 123 127 131 3 131 127
135 3 131 135 139 3 139 135 143 3
139 143 148 3 148 143 149 3 148 149
151 3 151 149 142 3 151 142 147 3
147 142 134 3 147 134 138 3 138 134
126 3 138 126 130 3 130 126 118 3
130 118 122 3 122 118 113 3 122 113
115 3 115 113 109 3 115 109 111 3
111 109 105 3 111 105 107 3 107 105
101 3 107 101 103 3 103 101 97 3
103 97 99 3 99 97 92 3 99 92
94 3 94 92 88 3 94 88 90 3
90 88 81 3 90 81 85 3 85 81
72 3 85 72 74 3 74 72 66 3
66 72 64 3 117 119 121 3 121 119
123 3 65 73 68 3 68 73 75 3
75 73 82 3 75 82 86 3 86 82
89 3 86 89 91 3 91 89 93 3
91 93 95 3 95 93 96 3 95 96
98 3 98 96 100 3 98 100 102 3
102 100 104 3 102 104 106 3 106 104
108 3 106 108 110 3 110 108 112 3
110 112 114 3 114 112 116 3 114 116
120 3 120 116 124 3 120 124 128 3
128 124 132 3 128 132 136 3 136 132
140 3 136 140 144 3 144 140 146 3
144 146 150 3 150 146 141 3 150 141
145 3 145 141 133 3 145 133 137 3
137 133 125 3 137 125 129 3 129 125
121 3 121 125 117 3 64 65 66 3
66 65 68 3 68 75 66 3 66 75
74 3 74 75 86 3 74 86 85 3
85 86 91 3 85 91 90 3 90 91
95 3 90 95 94 3 94 95 98 3
94 98 99 3 99 98 102 3 99 102
103 3 103 102 106 3 103 106 107 3
107 106 110 3 107 110 111 3 111 110
114 3 111 114 115 3 115 114 122 3
122 114 120 3 122 120 130 3 130 120
128 3 130 128 138 3 138 128 136 3
138 136 147 3 147 136 144 3 147 144
151 3 151 144 150 3 151 150 148 3
148 150 145 3 148 145 139 3 139 145
137 3 139 137 131 3 131 137 129 3
131 129 123 3 123 129 121 3 65 64
73 3 73 64 72 3 73 72 82 3
82 72 81 3 82 81 89 3 89 81
88 3 89 88 93 3 93 88 92 3
93 92 96 3 96 92 97 3 96 97
100 3 100 97 101 3 100 101 104 3
104 101 105 3 104 105 108 3 108 105
109 3 108 109 112 3 112 109 113 3
112 113 118 3 112 118 116 3 116 118
126 3 116 126 124 3 124 126 134 3
124 134 132 3 132 134 142 3 132 142
140 3 140 142 149 3 140 149 146 3
146 149 143 3 146 143 141 3 141 143
135 3 141 135 133 3 133 135 127 3
133 127 125 3 125 127 119 3 125 119
117 3 41 40 43 3 43 40 42 3
80 76 84 3 84 76 78 3 78 76
67 3 78 67 70 3 70 67 60 3
70 60 62 3 62 60 56 3 62 56
58 3 58 56 52 3 58 52 54 3
54 52 49 3 54 49 51 3 51 49
45 3 51 45 47 3 47 45 37 3
47 37 39 3 39 37 29 3 39 29
31 3 31 29 21 3 31 21 23 3
23 21 13 3 23 13 17 3 17 13
4 3 17 4 9 3 9 4 1 3
9 1 6 3 6 1 7 3 6 7
11 3 11 7 16 3 11 16 19 3
19 16 25 3 19 25 27 3 27 25
33 3 27 33 35 3 35 33 43 3
43 33 41 3 83 80 87 3 87 80
84 3 40 32 42 3 42 32 34 3
34 32 24 3 34 24 26 3 26 24
14 3 26 14 18 3 18 14 5 3
18 5 10 3 10 5 0 3 10 0
3 3 3 0 2 3 3 2 8 3
8 2 12 3 8 12 15 3 15 12
20 3 15 20 22 3 22 20 28 3
22 28 30 3 30 28 36 3 30 36
38 3 38 36 44 3 38 44 46 3
46 44 48 3 46 48 50 3 50 48
53 3 50 53 55 3 55 53 57 3
55 57 59 3 59 57 61 3 59 61
63 3 63 61 69 3 63 69 71 3
71 69 77 3 71 77 79 3 79 77
87 3 87 77 83 3 43 42 35 3
35 42 34 3 35 34 27 3 27 34
26 3 27 26 19 3 19 26 18 3
19 18 11 3 11 18 10 3 11 10
6 3 6 10 3 3 6 3 9 3
9 3 8 3 9 8 17 3 17 8
15 3 17 15 23 3 23 15 22 3
23 22 31 3 31 22 30 3 31 30
38 3 31 38 39 3 39 38 46 3
39 46 47 3 47 46 50 3 47 50
51 3 51 50 55 3 51 55 54 3
54 55 59 3 54 59 58 3 58 59
63 3 58 63 62 3 62 63 71 3
62 71 70 3 70 71 79 3 70 79
78 3 78 79 87 3 78 87 84 3
80 83 76 3 76 83 77 3 76 77
67 3 67 77 69 3 67 69 60 3
60 69 61 3 60 61 56 3 56 61
57 3 56 57 52 3 52 57 53 3
52 53 49 3 49 53 48 3 49 48
45 3 45 48 44 3 45 44 37 3
37 44 36 3 37 36 29 3 29 36
28 3 29 28 20 3 29 20 21 3
21 20 12 3 21 12 13 3 13 12
2 3 13 2 4 3 4 2 0 3
4 0 1 3 1 0 5 3 1 5
7 3 7 5 14 3 7 14 16 3
16 14 24 3 16 24 25 3 25 24
32 3 25 32 33 3 33 32 40 3
33 40 41 
CELL_DATA 296
FIELD attributes 1
zone 1 296 float
0 0 0 0 0 0 0 0 0 0 0
0 0 0 0 0 0 0 0 0 0
0 0 0 0 0 0 0 0 0 0
0 0 0 0 0 0 0 0 0 0
0 0 0 0 0 0 0 0 0 0
0 0 0 0 0 0 0 0 0 0
0 0 0 0 0 0 0 0 0 0
0 0 0 0 0 0 0 0 0 0
0 0 0 0 0 0 0 0 0 0
0 0 0 0 0 0 0 0 0 0
0 0 0 0 0 0 0 0 0 0
0 0 0 0 0 0 0 0 0 0
0 0 0 0 0 0 0 0 0 0
0 0 0 0 0 0 0 0 0 0
0 0 0 0 0 0 0 1 1 1
1 1 1 1 1 1 1 1 1 1
1 1 1 1 1 1 1 1 1 1
1 1 1 1 1 1 1 1 1 1
1 1 1 1 1 1 1 1 1 1
1 1 1 1 1 1 1 1 1 1
1 1 1 1 1 1 1 1 1 1
1 1 1 1 1 1 1 1 1 1
1 1 1 1 1 1 1 1 1 1
1 1 1 1 1 1 1 1 1 1
1 1 1 1 1 1 1 1 1 1
1 1 1 1 1 1 1 1 1 1
1 1 1 1 1 1 1 1 1 1
1 1 1 1 1 1 1 1 1 1
1 1 1 1 1 1 1 1 1 1
1 1 1 1 1 
